REMARK  Name = 644208
REMARK  11 active torsions:
REMARK  status: ('A' for Active; 'I' for Inactive)
REMARK    1  A    between atoms: P_1  and  O_7
REMARK    2  A    between atoms: P_1  and  O_8
REMARK    3  A    between atoms: P_2  and  O_8
REMARK    4  A    between atoms: P_2  and  O_11
REMARK    5  A    between atoms: P_3  and  O_11
REMARK    6  A    between atoms: O_5  and  C_22
REMARK    7  A    between atoms: O_6  and  C_23
REMARK    8  A    between atoms: O_7  and  C_26
REMARK    9  A    between atoms: N_17  and  C_24
REMARK   10  A    between atoms: N_21  and  C_30
REMARK   11  A    between atoms: C_25  and  C_26
REMARK                            x       y       z     vdW  Elec       q    Type
REMARK                         _______ _______ _______ _____ _____    ______ ____
ROOT
ATOM      1  O   UNL     1       2.320   3.456   2.312  0.00  0.00    -0.346 OA
ATOM      2  C   UNL     1       1.988   2.401   4.447  0.00  0.00    +0.129 C 
ATOM      3  C   UNL     1       3.364   3.062   4.434  0.00  0.00    +0.114 C 
ATOM      4  C   UNL     1       1.304   3.016   3.232  0.00  0.00    +0.167 C 
ATOM      5  C   UNL     1       3.605   3.460   2.973  0.00  0.00    +0.113 C 
ENDROOT
BRANCH   4   6
ATOM      6  N   UNL     1       0.310   2.209   2.548  0.00  0.00    -0.286 N 
ATOM      7  N   UNL     1      -1.717   1.686   1.739  0.00  0.00    -0.231 NA
ATOM      8  N   UNL     1       1.502   0.137   1.997  0.00  0.00    -0.216 NA
ATOM      9  N   UNL     1       0.042  -1.450   0.839  0.00  0.00    -0.219 NA
ATOM     10  C   UNL     1       0.424   0.947   2.033  0.00  0.00    +0.167 A 
ATOM     11  C   UNL     1      -0.989   2.608   2.333  0.00  0.00    +0.100 A 
ATOM     12  C   UNL     1      -0.844   0.650   1.515  0.00  0.00    +0.147 A 
ATOM     13  C   UNL     1      -1.016  -0.613   0.904  0.00  0.00    +0.147 A 
ATOM     14  C   UNL     1       1.216  -1.026   1.356  0.00  0.00    +0.120 A 
BRANCH  13  15
ATOM     15  N   UNL     1      -2.223  -1.048   0.363  0.00  0.00    -0.341 N 
ATOM     16  H   UNL     1      -2.285  -1.939  -0.051  0.00  0.00    +0.000 HD
ATOM     17  H   UNL     1      -3.015  -0.463   0.393  0.00  0.00    +0.000 HD
ENDBRANCH  13  15
ENDBRANCH   4   6
BRANCH   2  18
ATOM     18  O   UNL     1       1.306   2.693   5.671  0.00  0.00    -0.385 OA
ATOM     19  H   UNL     1       1.779   2.281   6.411  0.00  0.00    +0.000 HD
ENDBRANCH   2  18
BRANCH   3  20
ATOM     20  O   UNL     1       3.332   4.200   5.320  0.00  0.00    -0.386 OA
ATOM     21  H   UNL     1       3.178   3.898   6.229  0.00  0.00    +0.000 HD
ENDBRANCH   3  20
BRANCH   5  22
ATOM     22  C   UNL     1       4.546   2.481   2.277  0.00  0.00    +0.088 C 
BRANCH  22  23
ATOM     23  O   UNL     1       4.957   2.912   0.961  0.00  0.00    -0.284 OA
BRANCH  23  24
ATOM     24  P   UNL     1       5.877   1.748   0.228  0.00  0.00    +0.483 P 
ATOM     25  O   UNL     1       7.151   2.917   0.266  0.00  0.00    -0.302 OA
ATOM     26  O   UNL     1       4.736   0.701   0.195  0.00  0.00    -0.227 OA
BRANCH  24  27
ATOM     27  O   UNL     1       6.088   2.080  -1.353  0.00  0.00    -0.186 OA
BRANCH  27  28
ATOM     28  P   UNL     1       7.063   1.074  -2.246  0.00  0.00    +0.492 P 
ATOM     29  O   UNL     1       7.813   2.106  -3.275  0.00  0.00    -0.302 OA
ATOM     30  O   UNL     1       5.864   0.848  -3.198  0.00  0.00    -0.226 OA
BRANCH  28  31
ATOM     31  O   UNL     1       8.404   1.327  -1.181  0.00  0.00    -0.186 OA
BRANCH  31  32
ATOM     32  P   UNL     1       9.597   0.105  -1.456  0.00  0.00    +0.481 P 
ATOM     33  O   UNL     1      10.326   0.704  -0.112  0.00  0.00    -0.302 OA
ATOM     34  O   UNL     1       8.601  -0.869  -0.595  0.00  0.00    -0.302 OA
ATOM     35  O   UNL     1      10.666  -0.988  -1.702  0.00  0.00    -0.227 OA
ENDBRANCH  31  32
ENDBRANCH  28  31
ENDBRANCH  27  28
ENDBRANCH  24  27
ENDBRANCH  23  24
ENDBRANCH  22  23
ENDBRANCH   5  22
TORSDOF 11
