REMARK  Name = 5957
REMARK  11 active torsions:
REMARK  status: ('A' for Active; 'I' for Inactive)
REMARK    1  A    between atoms: P_1  and  O_7
REMARK    2  A    between atoms: P_1  and  O_8
REMARK    3  A    between atoms: P_2  and  O_8
REMARK    4  A    between atoms: P_2  and  O_11
REMARK    5  A    between atoms: P_3  and  O_11
REMARK    6  A    between atoms: O_5  and  C_22
REMARK    7  A    between atoms: O_6  and  C_23
REMARK    8  A    between atoms: O_7  and  C_26
REMARK    9  A    between atoms: N_17  and  C_24
REMARK   10  A    between atoms: N_21  and  C_30
REMARK   11  A    between atoms: C_25  and  C_26
REMARK                            x       y       z     vdW  Elec       q    Type
REMARK                         _______ _______ _______ _____ _____    ______ ____
ROOT
ATOM      1  O   UNL     1      -1.143  -0.079   0.640  0.00  0.00    -0.346 OA
ATOM      2  C   UNL     1      -3.327   0.828   0.238  0.00  0.00    +0.129 C 
ATOM      3  C   UNL     1      -2.998   0.962   1.719  0.00  0.00    +0.114 C 
ATOM      4  C   UNL     1      -1.941   0.595  -0.355  0.00  0.00    +0.167 C 
ATOM      5  C   UNL     1      -1.829  -0.006   1.917  0.00  0.00    +0.113 C 
ENDROOT
BRANCH   4   6
ATOM      6  N   UNL     1      -1.943  -0.168  -1.586  0.00  0.00    -0.286 N 
ATOM      7  N   UNL     1      -1.744  -0.557  -3.773  0.00  0.00    -0.231 NA
ATOM      8  N   UNL     1      -2.531  -2.415  -0.815  0.00  0.00    -0.216 NA
ATOM      9  N   UNL     1      -2.606  -3.986  -2.668  0.00  0.00    -0.219 NA
ATOM     10  C   UNL     1      -2.211  -1.503  -1.749  0.00  0.00    +0.167 A 
ATOM     11  C   UNL     1      -1.685   0.357  -2.828  0.00  0.00    +0.100 A 
ATOM     12  C   UNL     1      -2.081  -1.719  -3.116  0.00  0.00    +0.147 A 
ATOM     13  C   UNL     1      -2.282  -3.034  -3.567  0.00  0.00    +0.147 A 
ATOM     14  C   UNL     1      -2.735  -3.629  -1.376  0.00  0.00    +0.120 A 
BRANCH  13  15
ATOM     15  N   UNL     1      -2.132  -3.413  -4.898  0.00  0.00    -0.341 N 
ATOM     16  H   UNL     1      -2.284  -4.349  -5.163  0.00  0.00    +0.000 HD
ATOM     17  H   UNL     1      -1.874  -2.745  -5.574  0.00  0.00    +0.000 HD
ENDBRANCH  13  15
ENDBRANCH   4   6
BRANCH   2  18
ATOM     18  O   UNL     1      -3.940   2.015  -0.271  0.00  0.00    -0.385 OA
ATOM     19  H   UNL     1      -4.816   2.125   0.131  0.00  0.00    +0.000 HD
ENDBRANCH   2  18
BRANCH   3  20
ATOM     20  O   UNL     1      -2.606   2.335   1.935  0.00  0.00    -0.386 OA
ATOM     21  H   UNL     1      -3.372   2.915   1.800  0.00  0.00    +0.000 HD
ENDBRANCH   3  20
BRANCH   5  22
ATOM     22  C   UNL     1      -2.239  -1.417   2.375  0.00  0.00    +0.088 C 
BRANCH  22  23
ATOM     23  O   UNL     1      -1.055  -2.169   2.625  0.00  0.00    -0.284 OA
BRANCH  23  24
ATOM     24  P   UNL     1      -1.088  -3.752   2.849  0.00  0.00    +0.483 P 
ATOM     25  O   UNL     1      -0.429  -4.279   1.489  0.00  0.00    -0.302 OA
ATOM     26  O   UNL     1      -0.339  -4.291   4.035  0.00  0.00    -0.227 OA
BRANCH  24  27
ATOM     27  O   UNL     1      -2.582  -4.287   2.733  0.00  0.00    -0.186 OA
BRANCH  27  28
ATOM     28  P   UNL     1      -3.138  -5.115   4.049  0.00  0.00    +0.492 P 
ATOM     29  O   UNL     1      -4.644  -5.408   3.444  0.00  0.00    -0.302 OA
ATOM     30  O   UNL     1      -3.540  -3.836   4.824  0.00  0.00    -0.226 OA
BRANCH  28  31
ATOM     31  O   UNL     1      -2.689  -6.544   3.184  0.00  0.00    -0.186 OA
BRANCH  31  32
ATOM     32  P   UNL     1      -1.660  -7.292   4.183  0.00  0.00    +0.481 P 
ATOM     33  O   UNL     1      -1.840  -8.843   3.874  0.00  0.00    -0.302 OA
ATOM     34  O   UNL     1      -0.188  -6.941   3.693  0.00  0.00    -0.302 OA
ATOM     35  O   UNL     1      -1.912  -7.009   5.623  0.00  0.00    -0.227 OA
ENDBRANCH  31  32
ENDBRANCH  28  31
ENDBRANCH  27  28
ENDBRANCH  24  27
ENDBRANCH  23  24
ENDBRANCH  22  23
ENDBRANCH   5  22
TORSDOF 11
