REMARK  Name = 5291
REMARK  8 active torsions:
REMARK  status: ('A' for Active; 'I' for Inactive)
REMARK    1  A    between atoms: N_2  and  C_13
REMARK    2  A    between atoms: N_3  and  C_14
REMARK    3  A    between atoms: N_4  and  C_22
REMARK    4  A    between atoms: N_5  and  C_23
REMARK    5  A    between atoms: C_13  and  C_15
REMARK    6  A    between atoms: C_20  and  C_21
REMARK    7  A    between atoms: C_25  and  C_28
REMARK    8  A    between atoms: C_30  and  C_31
REMARK                            x       y       z     vdW  Elec       q    Type
REMARK                         _______ _______ _______ _____ _____    ______ ____
ROOT
ATOM      1  C   UNL     1       4.289   1.324   0.480  0.00  0.00    +0.035 A 
ATOM      2  C   UNL     1       6.586   0.460   0.284  0.00  0.00    +0.038 A 
ATOM      3  C   UNL     1       5.190   0.308   0.170  0.00  0.00    -0.019 A 
ATOM      4  C   UNL     1       7.071   1.763   0.542  0.00  0.00    -0.029 A 
ATOM      5  C   UNL     1       4.780   2.577   0.817  0.00  0.00    -0.040 A 
ATOM      6  C   UNL     1       6.154   2.802   0.807  0.00  0.00    -0.055 A 
ATOM      7  C   UNL     1       8.529   2.123   0.638  0.00  0.00    -0.038 C 
ENDROOT
BRANCH   2   8
ATOM      8  N   UNL     1       7.448  -0.654   0.167  0.00  0.00    -0.283 N 
ATOM      9  N   UNL     1       5.913  -2.490   0.181  0.00  0.00    -0.214 NA
ATOM     10  N   UNL     1       8.215  -2.854   0.384  0.00  0.00    -0.223 NA
ATOM     11  C   UNL     1       7.171  -2.031   0.235  0.00  0.00    +0.220 A 
ATOM     12  C   UNL     1       5.650  -3.811   0.280  0.00  0.00    +0.077 A 
ATOM     13  C   UNL     1       6.676  -4.711   0.416  0.00  0.00    -0.017 A 
ATOM     14  C   UNL     1       7.948  -4.173   0.473  0.00  0.00    +0.033 A 
ATOM     15  H   UNL     1       8.394  -0.430   0.013  0.00  0.00    +0.000 HD
BRANCH  12  17
ATOM     16  N   UNL     1       2.379  -5.560   1.089  0.00  0.00    -0.263 NA
ATOM     17  C   UNL     1       4.229  -4.185   0.258  0.00  0.00    +0.019 A 
ATOM     18  C   UNL     1       3.291  -3.456  -0.490  0.00  0.00    -0.050 A 
ATOM     19  C   UNL     1       3.695  -5.231   1.010  0.00  0.00    +0.037 A 
ATOM     20  C   UNL     1       1.924  -3.739  -0.412  0.00  0.00    -0.043 A 
ATOM     21  C   UNL     1       1.519  -4.787   0.386  0.00  0.00    +0.028 A 
ENDBRANCH  12  17
ENDBRANCH   2   8
BRANCH   1  23
ATOM     22  O   UNL     1       2.635  -0.595  -0.992  0.00  0.00    -0.270 OA
ATOM     23  N   UNL     1       2.894   1.124   0.542  0.00  0.00    -0.281 N 
ATOM     24  C   UNL     1       2.188   0.138  -0.120  0.00  0.00    +0.248 C 
ATOM     25  H   UNL     1       2.377   1.742   1.108  0.00  0.00    +0.000 HD
BRANCH  24  31
ATOM     26  C   UNL     1      -2.059   0.359   0.317  0.00  0.00    -0.033 A 
ATOM     27  C   UNL     1      -1.240   0.740   1.393  0.00  0.00    -0.057 A 
ATOM     28  C   UNL     1      -1.481  -0.250  -0.802  0.00  0.00    -0.057 A 
ATOM     29  C   UNL     1       0.148   0.605   1.311  0.00  0.00    -0.049 A 
ATOM     30  C   UNL     1      -0.098  -0.381  -0.887  0.00  0.00    -0.049 A 
ATOM     31  C   UNL     1       0.723   0.103   0.140  0.00  0.00    +0.037 A 
BRANCH  26  32
ATOM     32  C   UNL     1      -3.540   0.674   0.327  0.00  0.00    +0.024 C 
BRANCH  32  33
ATOM     33  N   UNL     1      -3.811   2.115   0.445  0.00  0.00    -0.296 N 
ATOM     34  N   UNL     1      -5.004   4.729  -0.391  0.00  0.00    -0.303 N 
ATOM     35  C   UNL     1      -3.251   2.900  -0.675  0.00  0.00    +0.012 C 
ATOM     36  C   UNL     1      -5.263   2.363   0.534  0.00  0.00    +0.012 C 
ATOM     37  C   UNL     1      -3.571   4.408  -0.532  0.00  0.00    +0.011 C 
ATOM     38  C   UNL     1      -5.591   3.871   0.658  0.00  0.00    +0.011 C 
ATOM     39  C   UNL     1      -5.711   4.594  -1.662  0.00  0.00    -0.013 C 
ATOM     40  H   UNL     1      -3.348   2.423   1.300  0.00  0.00    +0.000 HD
ATOM     41  H   UNL     1      -5.103   5.705  -0.112  0.00  0.00    +0.000 HD
ENDBRANCH  32  33
ENDBRANCH  26  32
ENDBRANCH  24  31
ENDBRANCH   1  23
TORSDOF 6
