REMARK  Name = 3084981
REMARK  15 active torsions:
REMARK  status: ('A' for Active; 'I' for Inactive)
REMARK    1  A    between atoms: O_2  and  C_18
REMARK    2  A    between atoms: O_2  and  C_20
REMARK    3  A    between atoms: O_3  and  C_16
REMARK    4  A    between atoms: O_4  and  C_17
REMARK    5  A    between atoms: O_5  and  C_22
REMARK    6  A    between atoms: O_6  and  C_25
REMARK    7  A    between atoms: O_10  and  C_31
REMARK    8  A    between atoms: O_11  and  C_34
REMARK    9  A    between atoms: N_14  and  C_15
REMARK   10  A    between atoms: C_19  and  C_24
REMARK   11  A    between atoms: C_23  and  C_28
REMARK   12  A    between atoms: C_38  and  C_40
REMARK   13  A    between atoms: C_40  and  C_41
REMARK   14  A    between atoms: C_41  and  C_44
REMARK   15  A    between atoms: C_44  and  C_48
REMARK                            x       y       z     vdW  Elec       q    Type
REMARK                         _______ _______ _______ _____ _____    ______ ____
ROOT
ATOM      1  O   UNL     1      -3.685   3.943   0.539  0.00  0.00    -0.297 OA
ATOM      2  O   UNL     1      -4.351  -3.238  -0.225  0.00  0.00    -0.458 OA
ATOM      3  O   UNL     1      -4.414  -1.127  -1.158  0.00  0.00    -0.246 OA
ATOM      4  C   UNL     1       2.932   0.003  -0.290  0.00  0.00    +0.083 C 
ATOM      5  C   UNL     1       2.352   1.395  -0.605  0.00  0.00    +0.004 C 
ATOM      6  C   UNL     1       1.091   1.771   0.197  0.00  0.00    +0.073 C 
ATOM      7  C   UNL     1       0.523   3.139  -0.241  0.00  0.00    +0.108 C 
ATOM      8  C   UNL     1      -0.899   3.446   0.284  0.00  0.00    +0.077 C 
ATOM      9  C   UNL     1      -1.947   2.549  -0.388  0.00  0.00    +0.033 C 
ATOM     10  C   UNL     1       1.908  -1.087  -0.447  0.00  0.00    -0.055 C 
ATOM     11  C   UNL     1      -3.359   3.118  -0.312  0.00  0.00    +0.138 C 
ATOM     12  C   UNL     1      -4.327   2.584  -1.362  0.00  0.00    +0.032 C 
ATOM     13  C   UNL     1      -5.787   3.011  -1.212  0.00  0.00    +0.064 C 
ATOM     14  C   UNL     1       1.551  -2.009   0.461  0.00  0.00    -0.063 C 
ATOM     15  C   UNL     1      -6.487   2.566   0.076  0.00  0.00    -0.000 C 
ATOM     16  C   UNL     1      -6.490   1.059   0.376  0.00  0.00    +0.061 C 
ATOM     17  C   UNL     1      -7.083   0.213  -0.761  0.00  0.00    -0.008 C 
ATOM     18  C   UNL     1       2.184  -2.239   1.742  0.00  0.00    -0.062 C 
ATOM     19  C   UNL     1      -7.287  -1.232  -0.395  0.00  0.00    -0.075 C 
ATOM     20  C   UNL     1      -2.906  -3.281  -0.252  0.00  0.00    +0.107 C 
ATOM     21  C   UNL     1       1.648  -2.894   2.784  0.00  0.00    -0.062 C 
ATOM     22  C   UNL     1      -2.439  -4.227   0.864  0.00  0.00    +0.003 C 
ATOM     23  C   UNL     1      -6.398  -2.234  -0.361  0.00  0.00    +0.019 C 
ATOM     24  C   UNL     1       0.293  -3.384   2.894  0.00  0.00    -0.062 C 
ATOM     25  C   UNL     1      -4.954  -2.096  -0.654  0.00  0.00    +0.332 C 
ATOM     26  C   UNL     1      -2.861  -3.727   2.220  0.00  0.00    -0.081 C 
ATOM     27  C   UNL     1      -0.774  -2.571   2.926  0.00  0.00    -0.062 C 
ATOM     28  C   UNL     1      -2.135  -3.016   3.094  0.00  0.00    -0.066 C 
ENDROOT
BRANCH   7  31
ATOM     29  O   UNL     1       1.922   4.916  -0.893  0.00  0.00    -0.480 OA
ATOM     30  O   UNL     1       1.729   4.519   1.343  0.00  0.00    -0.251 OA
ATOM     31  C   UNL     1       1.445   4.248   0.186  0.00  0.00    +0.313 C 
ENDBRANCH   7  31
BRANCH   6  32
ATOM     32  O   UNL     1       1.409   1.749   1.585  0.00  0.00    -0.391 OA
ATOM     33  H   UNL     1       1.762   0.877   1.821  0.00  0.00    +0.000 HD
ENDBRANCH   6  32
BRANCH   8  34
ATOM     34  O   UNL     1      -0.957   3.254   1.696  0.00  0.00    -0.390 OA
ATOM     35  H   UNL     1      -0.297   3.820   2.126  0.00  0.00    +0.000 HD
ENDBRANCH   8  34
BRANCH  13  36
ATOM     36  O   UNL     1      -5.858   4.434  -1.320  0.00  0.00    -0.391 OA
ATOM     37  H   UNL     1      -5.415   4.719  -2.135  0.00  0.00    +0.000 HD
ENDBRANCH  13  36
BRANCH  16  38
ATOM     38  O   UNL     1      -7.258   0.868   1.568  0.00  0.00    -0.391 OA
ATOM     39  H   UNL     1      -6.882   1.403   2.284  0.00  0.00    +0.000 HD
ENDBRANCH  16  38
BRANCH   4  40
ATOM     40  O   UNL     1       3.997  -0.267  -1.200  0.00  0.00    -0.341 OA
BRANCH  40  45
ATOM     41  O   UNL     1       5.539   0.740   0.253  0.00  0.00    -0.343 OA
ATOM     42  C   UNL     1       7.694  -0.876  -0.765  0.00  0.00    +0.065 C 
ATOM     43  C   UNL     1       6.362  -0.720  -1.511  0.00  0.00    +0.123 C 
ATOM     44  C   UNL     1       7.948   0.320   0.168  0.00  0.00    +0.099 C 
ATOM     45  C   UNL     1       5.236  -0.426  -0.515  0.00  0.00    +0.187 C 
ATOM     46  C   UNL     1       6.716   0.581   1.051  0.00  0.00    +0.086 C 
ATOM     47  C   UNL     1       6.880   1.851   1.881  0.00  0.00    -0.036 C 
BRANCH  42  48
ATOM     48  N   UNL     1       8.809  -1.038  -1.701  0.00  0.00    -0.323 N 
ATOM     49  H   UNL     1       8.628  -1.834  -2.312  0.00  0.00    +0.000 HD
ATOM     50  H   UNL     1       9.671  -1.200  -1.179  0.00  0.00    +0.000 HD
ATOM     51  H   UNL     1       8.906  -0.192  -2.263  0.00  0.00    +0.000 HD
ENDBRANCH  42  48
BRANCH  43  52
ATOM     52  O   UNL     1       6.438   0.357  -2.449  0.00  0.00    -0.385 OA
ATOM     53  H   UNL     1       7.149   0.182  -3.085  0.00  0.00    +0.000 HD
ENDBRANCH  43  52
BRANCH  44  54
ATOM     54  O   UNL     1       9.064   0.046   1.012  0.00  0.00    -0.388 OA
ATOM     55  H   UNL     1       9.848  -0.120   0.466  0.00  0.00    +0.000 HD
ENDBRANCH  44  54
ENDBRANCH  40  45
ENDBRANCH   4  40
BRANCH  20  56
ATOM     56  C   UNL     1      -2.455  -3.789  -1.617  0.00  0.00    -0.015 C 
BRANCH  56  57
ATOM     57  C   UNL     1      -0.983  -3.470  -1.869  0.00  0.00    -0.050 C 
BRANCH  57  58
ATOM     58  C   UNL     1      -0.526  -4.009  -3.225  0.00  0.00    -0.056 C 
ATOM     59  C   UNL     1       0.948  -3.726  -3.469  0.00  0.00    -0.065 C 
ENDBRANCH  57  58
ENDBRANCH  56  57
ENDBRANCH  20  56
TORSDOF 13
