REMARK  Name = 5280343
REMARK  6 active torsions:
REMARK  status: ('A' for Active; 'I' for Inactive)
REMARK    1  A    between atoms: O_2  and  C_12
REMARK    2  A    between atoms: O_3  and  C_14
REMARK    3  A    between atoms: O_5  and  C_16
REMARK    4  A    between atoms: O_6  and  C_20
REMARK    5  A    between atoms: O_7  and  C_22
REMARK    6  A    between atoms: C_10  and  C_11
REMARK                            x       y       z     vdW  Elec       q    Type
REMARK                         _______ _______ _______ _____ _____    ______ ____
ROOT
ATOM      1  O   UNL     1       0.614   2.076   0.021  0.00  0.00    -0.451 OA
ATOM      2  O   UNL     1       1.970  -1.769   0.130  0.00  0.00    -0.283 OA
ATOM      3  C   UNL     1       0.090  -0.307   0.025  0.00  0.00    +0.109 A 
ATOM      4  C   UNL     1      -0.287   1.038   0.023  0.00  0.00    +0.147 A 
ATOM      5  C   UNL     1       1.961   1.777  -0.020  0.00  0.00    +0.181 A 
ATOM      6  C   UNL     1       2.479   0.534   0.006  0.00  0.00    +0.208 A 
ATOM      7  C   UNL     1       1.538  -0.625   0.060  0.00  0.00    +0.238 A 
ATOM      8  C   UNL     1      -0.909  -1.295  -0.001  0.00  0.00    +0.135 A 
ATOM      9  C   UNL     1      -1.637   1.395   0.015  0.00  0.00    +0.023 A 
ATOM     10  C   UNL     1      -2.611   0.404  -0.005  0.00  0.00    +0.124 A 
ATOM     11  C   UNL     1      -2.262  -0.941  -0.018  0.00  0.00    +0.022 A 
ENDROOT
BRANCH   5  12
ATOM     12  C   UNL     1       2.823   2.964  -0.131  0.00  0.00    +0.025 A 
ATOM     13  C   UNL     1       3.336   3.588   1.016  0.00  0.00    -0.006 A 
ATOM     14  C   UNL     1       3.205   3.421  -1.404  0.00  0.00    -0.047 A 
ATOM     15  C   UNL     1       4.235   4.642   0.871  0.00  0.00    +0.159 A 
ATOM     16  C   UNL     1       4.106   4.479  -1.537  0.00  0.00    -0.016 A 
ATOM     17  C   UNL     1       4.620   5.075  -0.396  0.00  0.00    +0.158 A 
BRANCH  15  18
ATOM     18  O   UNL     1       4.788   5.277   1.949  0.00  0.00    -0.503 OA
ATOM     19  H   UNL     1       4.554   5.015   2.818  0.00  0.00    +0.000 HD
ENDBRANCH  15  18
BRANCH  17  20
ATOM     20  O   UNL     1       5.523   6.090  -0.527  0.00  0.00    -0.503 OA
ATOM     21  H   UNL     1       5.879   6.502   0.235  0.00  0.00    +0.000 HD
ENDBRANCH  17  20
ENDBRANCH   5  12
BRANCH   6  22
ATOM     22  O   UNL     1       3.836   0.252  -0.022  0.00  0.00    -0.501 OA
ATOM     23  H   UNL     1       4.459   0.952  -0.056  0.00  0.00    +0.000 HD
ENDBRANCH   6  22
BRANCH   8  24
ATOM     24  O   UNL     1      -0.583  -2.621  -0.021  0.00  0.00    -0.506 OA
ATOM     25  H   UNL     1       0.317  -2.882  -0.011  0.00  0.00    +0.000 HD
ENDBRANCH   8  24
BRANCH  10  26
ATOM     26  O   UNL     1      -3.917   0.799  -0.019  0.00  0.00    -0.507 OA
ATOM     27  H   UNL     1      -4.130   1.711  -0.010  0.00  0.00    +0.000 HD
ENDBRANCH  10  26
TORSDOF 6
