REMARK  Name = 44259
REMARK  5 active torsions:
REMARK  status: ('A' for Active; 'I' for Inactive)
REMARK    1  A    between atoms: O_2  and  C_9
REMARK    2  A    between atoms: O_2  and  C_31
REMARK    3  A    between atoms: N_6  and  C_11
REMARK    4  A    between atoms: N_6  and  C_30
REMARK    5  A    between atoms: C_8  and  C_18
REMARK                            x       y       z     vdW  Elec       q    Type
REMARK                         _______ _______ _______ _____ _____    ______ ____
ROOT
ATOM      1  O   UNL     1       4.848   7.784   8.584  0.00  0.00    -0.328 OA
ATOM      2  O   UNL     1       6.125   0.356   6.862  0.00  0.00    -0.270 OA
ATOM      3  N   UNL     1       7.290   6.656   7.870  0.00  0.00    -0.307 N 
ATOM      4  N   UNL     1       5.151   5.575   8.607  0.00  0.00    -0.311 N 
ATOM      5  N   UNL     1       8.203   0.743   7.688  0.00  0.00    -0.307 N 
ATOM      6  C   UNL     1       5.896   7.752   7.502  0.00  0.00    +0.174 C 
ATOM      7  C   UNL     1       6.218   9.273   7.387  0.00  0.00    +0.121 C 
ATOM      8  C   UNL     1       5.449   6.898   9.414  0.00  0.00    +0.140 C 
ATOM      9  C   UNL     1       7.475   9.178   8.186  0.00  0.00    +0.042 C 
ATOM     10  C   UNL     1       6.726   8.261   9.620  0.00  0.00    +0.011 C 
ATOM     11  C   UNL     1       7.246   5.294   7.793  0.00  0.00    +0.077 A 
ATOM     12  C   UNL     1       6.131   4.684   8.369  0.00  0.00    +0.077 A 
ATOM     13  C   UNL     1       8.304   4.387   7.851  0.00  0.00    +0.015 A 
ATOM     14  C   UNL     1       5.966   3.447   7.733  0.00  0.00    +0.022 A 
ATOM     15  C   UNL     1       8.592   6.459   8.860  0.00  0.00    +0.053 A 
ATOM     16  C   UNL     1       4.812   7.653   6.420  0.00  0.00    -0.014 C 
ATOM     17  C   UNL     1       4.393   5.028   7.368  0.00  0.00    +0.052 A 
ATOM     18  C   UNL     1       9.111   5.049   8.767  0.00  0.00    +0.008 A 
ATOM     19  C   UNL     1       8.237   2.950   7.806  0.00  0.00    -0.008 A 
ATOM     20  C   UNL     1       6.996   2.546   7.370  0.00  0.00    +0.052 A 
ATOM     21  C   UNL     1       5.229   4.015   6.684  0.00  0.00    +0.008 A 
ATOM     22  C   UNL     1       9.061   1.815   8.175  0.00  0.00    +0.039 C 
ATOM     23  C   UNL     1       9.383   7.213   9.833  0.00  0.00    -0.037 A 
ATOM     24  C   UNL     1       6.958   1.127   7.180  0.00  0.00    +0.245 C 
ATOM     25  C   UNL     1      10.116   4.536   9.653  0.00  0.00    -0.052 A 
ATOM     26  C   UNL     1       3.236   5.302   6.589  0.00  0.00    -0.037 A 
ATOM     27  C   UNL     1       5.403   4.069   5.270  0.00  0.00    -0.052 A 
ATOM     28  C   UNL     1      10.348   6.612  10.714  0.00  0.00    -0.060 A 
ATOM     29  C   UNL     1      10.702   5.283  10.646  0.00  0.00    -0.061 A 
ATOM     30  C   UNL     1       3.353   5.229   5.151  0.00  0.00    -0.060 A 
ATOM     31  C   UNL     1       4.493   4.756   4.503  0.00  0.00    -0.061 A 
ATOM     32  H   UNL     1       8.484  -0.200   7.715  0.00  0.00    +0.000 HD
ENDROOT
BRANCH   9  33
ATOM     33  N   UNL     1       8.276   8.746   6.979  0.00  0.00    -0.314 N 
ATOM     34  C   UNL     1       9.670   8.550   6.777  0.00  0.00    -0.015 C 
ATOM     35  H   UNL     1       7.870   7.843   6.735  0.00  0.00    +0.000 HD
ATOM     36  H   UNL     1       8.213   9.632   6.479  0.00  0.00    +0.000 HD
ENDBRANCH   9  33
BRANCH   7  37
ATOM     37  O   UNL     1       6.336   9.682   5.979  0.00  0.00    -0.373 OA
ATOM     38  C   UNL     1       5.566  10.809   5.580  0.00  0.00    +0.037 C 
ENDBRANCH   7  37
TORSDOF 2
